       N       E                     dE             d eps       ncg     rms          rms(c)
DAV:   1     0.509157699159E+03    0.50916E+03   -0.20399E+04 12072   0.128E+03
DAV:   2     0.211842728559E+02   -0.48797E+03   -0.47712E+03 11256   0.444E+02
DAV:   3    -0.712649911809E+02   -0.92449E+02   -0.90839E+02 16196   0.151E+02
DAV:   4    -0.749004109159E+02   -0.36354E+01   -0.36072E+01 13528   0.326E+01
DAV:   5    -0.750223641829E+02   -0.12195E+00   -0.12155E+00 15408   0.614E+00    0.227E+01
DAV:   6    -0.599120105503E+02    0.15110E+02   -0.15847E+02 16228   0.838E+01    0.145E+01
DAV:   7    -0.584191322099E+02    0.14929E+01   -0.41601E+01 17128   0.453E+01    0.858E+00
DAV:   8    -0.575525624396E+02    0.86657E+00   -0.81399E+00 16496   0.187E+01    0.306E+00
DAV:   9    -0.572860678250E+02    0.26649E+00   -0.16788E+00 15972   0.990E+00    0.187E+00
DAV:  10    -0.572323812580E+02    0.53687E-01   -0.19953E-01 13852   0.292E+00    0.118E+00
DAV:  11    -0.572009672178E+02    0.31414E-01   -0.23772E-01 15840   0.344E+00    0.285E-01
DAV:  12    -0.571976831534E+02    0.32841E-02   -0.33603E-02 15816   0.102E+00    0.246E-01
DAV:  13    -0.571954147589E+02    0.22684E-02   -0.21781E-02 15864   0.107E+00    0.193E-01
DAV:  14    -0.571966919100E+02   -0.12772E-02   -0.48854E-03 12728   0.622E-01    0.913E-02
DAV:  15    -0.571974980214E+02   -0.80611E-03   -0.28746E-03 14716   0.279E-01    0.592E-02
DAV:  16    -0.571985218937E+02   -0.10239E-02   -0.86191E-04 11040   0.202E-01    0.292E-02
DAV:  17    -0.571987487586E+02   -0.22686E-03   -0.21824E-04  9088   0.774E-02    0.900E-03
DAV:  18    -0.571988102288E+02   -0.61470E-04   -0.57423E-05  8140   0.405E-02
   1 F= -.57198810E+02 E0= -.57199317E+02  d E =-.571988E+02
       N       E                     dE             d eps       ncg     rms          rms(c)
DAV:   1    -0.565346159405E+02    0.66413E+00   -0.83157E+01 12052   0.122E+02    0.146E+00
DAV:   2    -0.575347404395E+02   -0.10001E+01   -0.10457E+01 11268   0.255E+01    0.101E+00
DAV:   3    -0.575570502645E+02   -0.22310E-01   -0.39282E-01 16556   0.510E+00    0.814E-01
DAV:   4    -0.575508038212E+02    0.62464E-02   -0.41232E-02 16092   0.237E+00    0.515E-01
DAV:   5    -0.575491977928E+02    0.16060E-02   -0.13903E-02 14732   0.813E-01    0.167E-01
DAV:   6    -0.575491269378E+02    0.70855E-04   -0.34876E-03 16372   0.558E-01    0.758E-02
DAV:   7    -0.575490757633E+02    0.51175E-04   -0.10966E-03 14760   0.228E-01    0.486E-02
DAV:   8    -0.575490555965E+02    0.20167E-04   -0.13143E-04  9468   0.117E-01
   2 F= -.57549056E+02 E0= -.57549325E+02  d E =-.350245E+00
       N       E                     dE             d eps       ncg     rms          rms(c)
DAV:   1    -0.573035115809E+02    0.24556E+00   -0.26708E+01 12852   0.703E+01    0.776E-01
DAV:   2    -0.575927708644E+02   -0.28926E+00   -0.31728E+00 11220   0.132E+01    0.436E-01
DAV:   3    -0.575986583438E+02   -0.58875E-02   -0.81716E-02 16588   0.225E+00    0.306E-01
DAV:   4    -0.575990404531E+02   -0.38211E-03   -0.15802E-02 16208   0.131E+00    0.292E-01
DAV:   5    -0.575980128491E+02    0.10276E-02   -0.49046E-03 16428   0.788E-01    0.897E-02
DAV:   6    -0.575978558162E+02    0.15703E-03   -0.90781E-04 14852   0.238E-01    0.281E-02
DAV:   7    -0.575978401382E+02    0.15678E-04   -0.10316E-04  7848   0.976E-02
   3 F= -.57597840E+02 E0= -.57597885E+02  d E =-.399030E+00
       N       E                     dE             d eps       ncg     rms          rms(c)
DAV:   1    -0.575856166849E+02    0.12239E-01   -0.12035E+00 11928   0.152E+01    0.170E-01
DAV:   2    -0.576009160802E+02   -0.15299E-01   -0.16448E-01 11228   0.318E+00    0.110E-01
DAV:   3    -0.576012038527E+02   -0.28777E-03   -0.45817E-03 17072   0.557E-01    0.721E-02
DAV:   4    -0.576011806084E+02    0.23244E-04   -0.52349E-04 13684   0.144E-01
   4 F= -.57601181E+02 E0= -.57601252E+02  d E =-.402370E+00
